18
	Energy:      45.7214333
C          0.26810       -0.07165       -0.56353
C          1.23016        0.82141       -0.85703
C          0.77332        2.10742       -0.35279
C         -0.52608        1.91309        0.28183
C         -0.80882        0.60285        0.13977
C          1.45475        3.25090       -0.48515
C          1.05505        4.57135       -0.05372
C         -0.03911        4.95477        0.61756
C         -1.13980        4.16431        1.11820
C         -1.36722        2.85167        0.97348
H          0.27737       -1.12471       -0.79687
H          2.15774        0.63276       -1.37157
H         -1.68945        0.09225        0.49884
H          2.41862        3.22311       -0.99089
H          1.76169        5.35259       -0.33441
H         -0.13660        6.01929        0.83270
H         -2.26639        2.44037        1.42785
H         -1.87589        4.73740        1.68153
