49
	Energy:     186.9270808
C          0.60942       -0.98756        1.33316
C          0.10928       -1.23469       -0.00296
C         -0.79260       -0.12985       -0.25874
C         -0.53384        0.91277        0.74190
C          0.25295        0.37522        1.70920
C         -1.77379       -0.05950       -1.17367
C         -3.02320        0.68681       -0.88820
C         -3.09693        2.01547       -0.55748
C         -1.81669        2.80403       -0.35259
C         -0.73399        2.34931        0.44507
C         -1.71007        4.08916       -0.92302
C         -0.69122        4.97404       -0.57019
C          0.31933        4.55306        0.27761
C          0.32351        3.23829        0.73947
C         -4.23947       -0.10753       -0.88345
C         -5.54928        0.42243       -0.67425
C         -5.77778        1.82770       -0.40398
C         -4.49870        2.65401       -0.38362
C         -6.97279        2.45279       -0.10521
C         -7.06330        3.87208       -0.08942
C         -5.92728        4.65939       -0.23033
C         -4.63264        3.98737       -0.19461
C         -4.35369       -1.48321       -0.97418
N         -5.68722       -1.79031       -0.96968
C         -6.41957       -0.63672       -0.83277
C         -8.16007        1.77593        0.20680
C         -9.36942        2.45114        0.41850
C         -9.42420        3.83685        0.33803
C         -8.28510        4.56995        0.08942
N         -8.38965        5.91136        0.05035
C         -7.27084        6.62339       -0.18145
C         -6.02620        6.04901       -0.33477
H          1.02594       -1.72315        2.00316
H          0.35993       -2.06957       -0.63298
H          0.71625        0.89375        2.53238
H         -2.46509        4.44119       -1.62372
H         -0.69569        5.98885       -0.95830
H          1.12944        5.22753        0.54027
H          1.19353        2.90146        1.29892
H         -6.07826       -2.71936       -1.06484
H         -7.49427       -0.71630       -0.85130
H        -10.27065        1.89158        0.65577
H        -10.36599        4.35494        0.50304
H         -3.61934       -2.27547       -1.04633
H         -7.40512        7.70152       -0.21918
H         -5.16193        6.67531       -0.52443
H         -3.80900        4.65102        0.01294
H         -8.19091        0.70562        0.34973
H         -1.82470       -0.78464       -1.97997
